<?xml version="1.0" encoding="UTF-8"?>

<!-- generated on 2024-11-21 03:15:14 by Eclipse SUMO GUI Version 1.21.0
<sumoConfiguration xmlns:xsi="http://www.w3.org/2001/XMLSchema-instance" xsi:noNamespaceSchemaLocation="http://sumo.dlr.de/xsd/sumoConfiguration.xsd">

    <input>
        <net-file value="C:\Users\NcC9-24\Desktop\traci20 - Copy\osm.net.xml"/>
        <route-files value="C:\Users\NcC9-24\Desktop\traci20 - Copy\osm.bus.trips.xml,C:\Users\NcC9-24\Desktop\traci20 - Copy\osm.passenger2.trips.xml,C:\Users\NcC9-24\Desktop\traci20 - Copy\osm.truck.trips.xml,C:\Users\NcC9-24\Desktop\traci20 - Copy\ ExtraV.rou.xml,C:\Users\NcC9-24\Desktop\traci20 - Copy\ Test.rou.xml"/>
        <additional-files value="C:\Users\NcC9-24\Desktop\traci20 - Copy\osm.poly.xml.gz,C:\Users\NcC9-24\Desktop\traci20 - Copy\ customers.add.xml"/>
    </input>

    <output>
        <tripinfo-output value="C:\Users\NcC9-24\Desktop\traci20 - Copy\tripinfo.xml"/>
    </output>

    <time>
        <end value="5000"/>
    </time>

    <processing>
        <ignore-route-errors value="true"/>
    </processing>

    <routing>
        <device.rerouting.probability value="1"/>
        <device.rerouting.explicit value="false"/>
        <device.rerouting.adaptation-steps value="0"/>
    </routing>

    <report>
        <verbose value="true"/>
        <duration-log.statistics value="true"/>
        <no-step-log value="true"/>
    </report>

    <gui_only>
        <gui-settings-file value="C:\Users\NcC9-24\Desktop\traci20 - Copy\osm.view.xml"/>
    </gui_only>

</sumoConfiguration>
-->

<tripinfos xmlns:xsi="http://www.w3.org/2001/XMLSchema-instance" xsi:noNamespaceSchemaLocation="http://sumo.dlr.de/xsd/tripinfo_file.xsd">
    <tripinfo id="veh140" depart="44.00" departLane="239353258#1_0" departPos="5.10" departSpeed="0.00" departDelay="0.87" arrival="82.00" arrivalLane="7546429#11_0" arrivalPos="4.67" arrivalSpeed="12.43" duration="38.00" routeLength="410.67" waitingTime="0.00" waitingCount="0" stopTime="0.00" timeLoss="5.14" rerouteNo="1" devices="tripinfo_veh140 routing_veh140" vType="veh_passenger" speedFactor="0.96" vaporized=""/>
    <tripinfo id="veh39" depart="13.00" departLane="7516981#12_0" departPos="5.10" departSpeed="0.00" departDelay="0.98" arrival="133.00" arrivalLane="7515979#16_0" arrivalPos="24.01" arrivalSpeed="8.79" duration="120.00" routeLength="1213.41" waitingTime="1.00" waitingCount="1" stopTime="0.00" timeLoss="17.95" rerouteNo="1" devices="tripinfo_veh39 routing_veh39" vType="veh_passenger" speedFactor="1.10" vaporized=""/>
    <tripinfo id="veh50" depart="16.00" departLane="7331866#0_0" departPos="5.10" departSpeed="7.30" departDelay="0.60" arrival="136.00" arrivalLane="430014571#0_0" arrivalPos="3.92" arrivalSpeed="11.87" duration="120.00" routeLength="1049.33" waitingTime="0.00" waitingCount="0" stopTime="0.00" timeLoss="13.66" rerouteNo="1" devices="tripinfo_veh50 routing_veh50" vType="veh_passenger" speedFactor="0.88" vaporized=""/>
    <tripinfo id="veh20" depart="7.00" departLane="7332973#3_0" departPos="5.10" departSpeed="0.00" departDelay="0.84" arrival="148.00" arrivalLane="27628545#1_0" arrivalPos="38.56" arrivalSpeed="13.87" duration="141.00" routeLength="1815.08" waitingTime="0.00" waitingCount="0" stopTime="0.00" timeLoss="17.99" rerouteNo="1" devices="tripinfo_veh20 routing_veh20" vType="veh_passenger" speedFactor="1.01" vaporized=""/>
    <tripinfo id="veh78" depart="25.00" departLane="-7511797#9_0" departPos="5.10" departSpeed="0.00" departDelay="0.97" arrival="157.00" arrivalLane="-7511774#9_0" arrivalPos="35.98" arrivalSpeed="7.74" duration="132.00" routeLength="967.77" waitingTime="20.00" waitingCount="2" stopTime="0.00" timeLoss="40.31" rerouteNo="1" devices="tripinfo_veh78 routing_veh78" vType="veh_passenger" speedFactor="0.96" vaporized=""/>
    <tripinfo id="veh388" depart="120.00" departLane="-7517367#6_0" departPos="5.10" departSpeed="0.00" departDelay="0.46" arrival="158.00" arrivalLane="7517175#0_0" arrivalPos="216.99" arrivalSpeed="12.87" duration="38.00" routeLength="407.79" waitingTime="0.00" waitingCount="0" stopTime="0.00" timeLoss="5.91" rerouteNo="0" devices="tripinfo_veh388 routing_veh388" vType="veh_passenger" speedFactor="0.95" vaporized=""/>
    <tripinfo id="veh150" depart="47.00" departLane="-7331962#3_0" departPos="5.10" departSpeed="11.21" departDelay="0.79" arrival="161.00" arrivalLane="7331645_0" arrivalPos="33.73" arrivalSpeed="8.64" duration="114.00" routeLength="1079.46" waitingTime="22.00" waitingCount="1" stopTime="0.00" timeLoss="39.56" rerouteNo="1" devices="tripinfo_veh150 routing_veh150" vType="veh_passenger" speedFactor="1.16" vaporized=""/>
    <tripinfo id="myflow1.0" depart="100.00" departLane="-275095923#6_0" departPos="5.10" departSpeed="0.00" departDelay="0.00" arrival="172.00" arrivalLane="-1267989605#1_0" arrivalPos="29.94" arrivalSpeed="13.86" duration="72.00" routeLength="541.87" waitingTime="0.00" waitingCount="0" stopTime="0.00" timeLoss="8.02" rerouteNo="1" devices="tripinfo_myflow1.0 routing_myflow1.0" vType="DEFAULT_VEHTYPE" speedFactor="1.00" vaporized=""/>
    <tripinfo id="veh43" depart="14.00" departLane="972892762#0_0" departPos="5.10" departSpeed="0.00" departDelay="0.75" arrival="174.00" arrivalLane="300547416_0" arrivalPos="68.68" arrivalSpeed="14.97" duration="160.00" routeLength="2879.61" waitingTime="9.00" waitingCount="1" stopTime="0.00" timeLoss="28.69" rerouteNo="1" devices="tripinfo_veh43 routing_veh43" vType="veh_passenger" speedFactor="1.09" vaporized=""/>
    <tripinfo id="veh45" depart="14.00" departLane="-7327041#0_0" departPos="5.10" departSpeed="0.00" departDelay="0.14" arrival="175.00" arrivalLane="7326861#2_0" arrivalPos="7.87" arrivalSpeed="7.94" duration="161.00" routeLength="1766.79" waitingTime="1.00" waitingCount="1" stopTime="0.00" timeLoss="23.26" rerouteNo="1" devices="tripinfo_veh45 routing_veh45" vType="veh_passenger" speedFactor="1.04" vaporized=""/>
    <tripinfo id="veh146" depart="45.00" departLane="1126480706#1_0" departPos="5.10" departSpeed="0.00" departDelay="0.02" arrival="177.00" arrivalLane="-1125839328#4_0" arrivalPos="23.12" arrivalSpeed="13.85" duration="132.00" routeLength="1468.30" waitingTime="0.00" waitingCount="0" stopTime="0.00" timeLoss="23.17" rerouteNo="1" devices="tripinfo_veh146 routing_veh146" vType="veh_passenger" speedFactor="1.00" vaporized=""/>
    <tripinfo id="veh79" depart="25.00" departLane="-51067767#2_0" departPos="5.10" departSpeed="0.00" departDelay="0.66" arrival="179.00" arrivalLane="-7327007#3_0" arrivalPos="46.38" arrivalSpeed="8.05" duration="154.00" routeLength="1478.15" waitingTime="0.00" waitingCount="0" stopTime="0.00" timeLoss="25.08" rerouteNo="1" devices="tripinfo_veh79 routing_veh79" vType="veh_passenger" speedFactor="0.98" vaporized=""/>
    <tripinfo id="veh82" depart="26.00" departLane="7512927#1_0" departPos="5.10" departSpeed="0.00" departDelay="0.74" arrival="182.00" arrivalLane="7330728#9_0" arrivalPos="191.54" arrivalSpeed="13.49" duration="156.00" routeLength="1639.42" waitingTime="9.00" waitingCount="2" stopTime="0.00" timeLoss="28.95" rerouteNo="1" devices="tripinfo_veh82 routing_veh82" vType="veh_passenger" speedFactor="1.01" vaporized=""/>
    <tripinfo id="veh40" depart="13.00" departLane="497839161#0_1" departPos="5.10" departSpeed="0.00" departDelay="0.68" arrival="185.00" arrivalLane="7517232#0_0" arrivalPos="125.13" arrivalSpeed="12.13" duration="172.00" routeLength="1536.93" waitingTime="28.00" waitingCount="2" stopTime="0.00" timeLoss="47.08" rerouteNo="1" devices="tripinfo_veh40 routing_veh40" vType="veh_passenger" speedFactor="0.90" vaporized=""/>
    <tripinfo id="veh395" depart="122.00" departLane="280058729#0_0" departPos="5.10" departSpeed="5.57" departDelay="0.31" arrival="186.00" arrivalLane="7516603#2_0" arrivalPos="6.13" arrivalSpeed="8.59" duration="64.00" routeLength="519.36" waitingTime="0.00" waitingCount="0" stopTime="0.00" timeLoss="8.35" rerouteNo="1" devices="tripinfo_veh395 routing_veh395" vType="veh_passenger" speedFactor="1.14" vaporized=""/>
    <tripinfo id="myflow1.1" depart="118.00" departLane="-275095923#6_0" departPos="5.10" departSpeed="0.00" departDelay="0.50" arrival="192.00" arrivalLane="-1267989605#1_0" arrivalPos="29.94" arrivalSpeed="12.45" duration="74.00" routeLength="541.87" waitingTime="0.00" waitingCount="0" stopTime="0.00" timeLoss="7.69" rerouteNo="1" devices="tripinfo_myflow1.1 routing_myflow1.1" vType="DEFAULT_VEHTYPE" speedFactor="0.96" vaporized=""/>
    <tripinfo id="veh161" depart="50.00" departLane="7546499#6_0" departPos="5.10" departSpeed="0.00" departDelay="0.40" arrival="208.00" arrivalLane="7547191#0_0" arrivalPos="22.25" arrivalSpeed="3.04" duration="158.00" routeLength="1207.38" waitingTime="0.00" waitingCount="0" stopTime="0.00" timeLoss="19.66" rerouteNo="1" devices="tripinfo_veh161 routing_veh161" vType="veh_passenger" speedFactor="1.04" vaporized=""/>
    <tripinfo id="veh165" depart="51.00" departLane="7519874#5_0" departPos="5.10" departSpeed="0.00" departDelay="0.17" arrival="208.00" arrivalLane="7519692#1_0" arrivalPos="7.47" arrivalSpeed="3.95" duration="157.00" routeLength="1854.92" waitingTime="0.00" waitingCount="0" stopTime="0.00" timeLoss="22.87" rerouteNo="1" devices="tripinfo_veh165 routing_veh165" vType="veh_passenger" speedFactor="1.07" vaporized=""/>
    <tripinfo id="myflow1.2" depart="135.00" departLane="-275095923#6_0" departPos="5.10" departSpeed="0.00" departDelay="0.00" arrival="208.00" arrivalLane="-1267989605#1_0" arrivalPos="29.94" arrivalSpeed="13.00" duration="73.00" routeLength="541.87" waitingTime="0.00" waitingCount="0" stopTime="0.00" timeLoss="7.86" rerouteNo="1" devices="tripinfo_myflow1.2 routing_myflow1.2" vType="DEFAULT_VEHTYPE" speedFactor="0.99" vaporized=""/>
    <tripinfo id="veh36" depart="12.00" departLane="7519966_0" departPos="5.10" departSpeed="0.00" departDelay="0.91" arrival="211.00" arrivalLane="-7546296_0" arrivalPos="47.33" arrivalSpeed="7.28" duration="199.00" routeLength="1971.33" waitingTime="4.00" waitingCount="1" stopTime="0.00" timeLoss="29.63" rerouteNo="1" devices="tripinfo_veh36 routing_veh36" vType="veh_passenger" speedFactor="1.02" vaporized=""/>
    <tripinfo id="veh59" depart="19.00" departLane="-7510879#1_0" departPos="5.10" departSpeed="0.00" departDelay="0.82" arrival="214.00" arrivalLane="45581740#2_0" arrivalPos="0.20" arrivalSpeed="6.79" duration="195.00" routeLength="1897.14" waitingTime="0.00" waitingCount="0" stopTime="0.00" timeLoss="20.19" rerouteNo="1" devices="tripinfo_veh59 routing_veh59" vType="veh_passenger" speedFactor="0.90" vaporized=""/>
    <tripinfo id="veh184" depart="57.00" departLane="7547487#3_0" departPos="0.20" departSpeed="5.19" departDelay="0.31" arrival="224.00" arrivalLane="-624185603#0_0" arrivalPos="17.33" arrivalSpeed="3.38" duration="167.00" routeLength="1341.68" waitingTime="0.00" waitingCount="0" stopTime="0.00" timeLoss="18.18" rerouteNo="1" devices="tripinfo_veh184 routing_veh184" vType="veh_passenger" speedFactor="0.94" vaporized=""/>
    <tripinfo id="veh487" depart="151.00" departLane="7330804#2_0" departPos="5.10" departSpeed="0.00" departDelay="0.96" arrival="225.00" arrivalLane="73180115#2_0" arrivalPos="116.89" arrivalSpeed="13.92" duration="74.00" routeLength="780.41" waitingTime="0.00" waitingCount="0" stopTime="0.00" timeLoss="9.30" rerouteNo="1" devices="tripinfo_veh487 routing_veh487" vType="veh_passenger" speedFactor="1.08" vaporized=""/>
    <tripinfo id="veh118" depart="37.00" departLane="670686455_0" departPos="5.10" departSpeed="12.89" departDelay="0.65" arrival="226.00" arrivalLane="7326009#2_0" arrivalPos="88.72" arrivalSpeed="6.64" duration="189.00" routeLength="1851.15" waitingTime="0.00" waitingCount="0" stopTime="0.00" timeLoss="19.06" rerouteNo="1" devices="tripinfo_veh118 routing_veh118" vType="veh_passenger" speedFactor="0.93" vaporized=""/>
    <tripinfo id="veh169" depart="53.00" departLane="-7546408#1_0" departPos="5.10" departSpeed="0.00" departDelay="0.93" arrival="227.00" arrivalLane="7519791#2_0" arrivalPos="74.69" arrivalSpeed="9.49" duration="174.00" routeLength="2248.03" waitingTime="0.00" waitingCount="0" stopTime="0.00" timeLoss="18.60" rerouteNo="1" devices="tripinfo_veh169 routing_veh169" vType="veh_passenger" speedFactor="1.18" vaporized=""/>
    <tripinfo id="veh233" depart="72.00" departLane="1075510483_0" departPos="5.10" departSpeed="0.00" departDelay="0.22" arrival="229.00" arrivalLane="7546413#1_0" arrivalPos="19.97" arrivalSpeed="10.47" duration="157.00" routeLength="652.99" waitingTime="82.00" waitingCount="3" stopTime="0.00" timeLoss="113.30" rerouteNo="1" devices="tripinfo_veh233 routing_veh233" vType="veh_passenger" speedFactor="0.83" vaporized=""/>
    <tripinfo id="veh135" depart="42.00" departLane="7330759_0" departPos="5.10" departSpeed="0.00" departDelay="0.41" arrival="230.00" arrivalLane="7330037#0_0" arrivalPos="43.36" arrivalSpeed="6.73" duration="188.00" routeLength="1085.50" waitingTime="36.00" waitingCount="2" stopTime="0.00" timeLoss="58.89" rerouteNo="1" devices="tripinfo_veh135 routing_veh135" vType="veh_passenger" speedFactor="0.82" vaporized=""/>
    <tripinfo id="myflow1.3" depart="153.00" departLane="-275095923#6_0" departPos="5.10" departSpeed="0.00" departDelay="0.50" arrival="230.00" arrivalLane="-1267989605#1_0" arrivalPos="29.94" arrivalSpeed="12.33" duration="77.00" routeLength="541.87" waitingTime="0.00" waitingCount="0" stopTime="0.00" timeLoss="8.69" rerouteNo="1" devices="tripinfo_myflow1.3 routing_myflow1.3" vType="DEFAULT_VEHTYPE" speedFactor="0.93" vaporized=""/>
    <tripinfo id="myflow1.4" depart="170.00" departLane="-275095923#6_0" departPos="5.10" departSpeed="0.00" departDelay="0.00" arrival="233.00" arrivalLane="-1267989605#1_0" arrivalPos="29.94" arrivalSpeed="14.13" duration="63.00" routeLength="541.87" waitingTime="0.00" waitingCount="0" stopTime="0.00" timeLoss="6.43" rerouteNo="1" devices="tripinfo_myflow1.4 routing_myflow1.4" vType="DEFAULT_VEHTYPE" speedFactor="1.13" vaporized=""/>
    <tripinfo id="veh203" depart="63.00" departLane="7330929_2" departPos="5.10" departSpeed="0.00" departDelay="0.46" arrival="242.00" arrivalLane="-7512126#0_0" arrivalPos="0.20" arrivalSpeed="7.05" duration="179.00" routeLength="1360.87" waitingTime="45.00" waitingCount="3" stopTime="0.00" timeLoss="70.48" rerouteNo="1" devices="tripinfo_veh203 routing_veh203" vType="veh_passenger" speedFactor="0.92" vaporized=""/>
    <tripinfo id="veh234" depart="73.00" departLane="-602549448#3_0" departPos="2.71" departSpeed="0.00" departDelay="0.91" arrival="244.00" arrivalLane="7332624#3_0" arrivalPos="52.43" arrivalSpeed="8.15" duration="171.00" routeLength="1587.22" waitingTime="16.00" waitingCount="1" stopTime="0.00" timeLoss="37.47" rerouteNo="1" devices="tripinfo_veh234 routing_veh234" vType="veh_passenger" speedFactor="1.09" vaporized=""/>
    <tripinfo id="veh88" depart="28.00" departLane="1088831210_3" departPos="5.10" departSpeed="0.00" departDelay="0.89" arrival="247.00" arrivalLane="176760027#0_0" arrivalPos="13.78" arrivalSpeed="8.37" duration="219.00" routeLength="2744.35" waitingTime="22.00" waitingCount="3" stopTime="0.00" timeLoss="62.18" rerouteNo="1" devices="tripinfo_veh88 routing_veh88" vType="veh_passenger" speedFactor="1.15" vaporized=""/>
    <tripinfo id="veh41" depart="13.00" departLane="-603982146#0_0" departPos="5.10" departSpeed="0.00" departDelay="0.37" arrival="249.00" arrivalLane="7546281#0_0" arrivalPos="63.22" arrivalSpeed="7.60" duration="236.00" routeLength="3047.52" waitingTime="11.00" waitingCount="2" stopTime="0.00" timeLoss="50.17" rerouteNo="1" devices="tripinfo_veh41 routing_veh41" vType="veh_passenger" speedFactor="1.03" vaporized=""/>
    <tripinfo id="veh606" depart="187.00" departLane="-7511208#1_0" departPos="1.46" departSpeed="0.00" departDelay="0.30" arrival="249.00" arrivalLane="275095908#2_0" arrivalPos="30.92" arrivalSpeed="7.60" duration="62.00" routeLength="451.21" waitingTime="0.00" waitingCount="0" stopTime="0.00" timeLoss="8.42" rerouteNo="1" devices="tripinfo_veh606 routing_veh606" vType="veh_passenger" speedFactor="1.01" vaporized=""/>
    <tripinfo id="veh143" depart="45.00" departLane="-1047514601#4_0" departPos="5.10" departSpeed="0.00" departDelay="0.94" arrival="255.00" arrivalLane="7511227#1_0" arrivalPos="15.96" arrivalSpeed="7.37" duration="210.00" routeLength="1591.11" waitingTime="0.00" waitingCount="0" stopTime="0.00" timeLoss="22.17" rerouteNo="1" devices="tripinfo_veh143 routing_veh143" vType="veh_passenger" speedFactor="1.01" vaporized=""/>
    <tripinfo id="veh102" depart="32.00" departLane="-908167946_0" departPos="5.10" departSpeed="0.00" departDelay="0.58" arrival="258.00" arrivalLane="-424323772_0" arrivalPos="108.81" arrivalSpeed="12.12" duration="226.00" routeLength="3052.49" waitingTime="0.00" waitingCount="0" stopTime="0.00" timeLoss="28.14" rerouteNo="1" devices="tripinfo_veh102 routing_veh102" vType="veh_passenger" speedFactor="0.91" vaporized=""/>
    <tripinfo id="veh612" depart="189.00" departLane="-7520017#2_0" departPos="5.10" departSpeed="0.00" departDelay="0.45" arrival="259.00" arrivalLane="7519667#5_0" arrivalPos="5.12" arrivalSpeed="6.56" duration="70.00" routeLength="483.33" waitingTime="0.00" waitingCount="0" stopTime="0.00" timeLoss="10.05" rerouteNo="1" devices="tripinfo_veh612 routing_veh612" vType="veh_passenger" speedFactor="0.92" vaporized=""/>
    <tripinfo id="veh42" depart="13.00" departLane="89984850#3_0" departPos="5.10" departSpeed="0.00" departDelay="0.06" arrival="262.00" arrivalLane="-7511694#1_0" arrivalPos="15.64" arrivalSpeed="7.17" duration="249.00" routeLength="1961.18" waitingTime="17.00" waitingCount="1" stopTime="0.00" timeLoss="49.95" rerouteNo="1" devices="tripinfo_veh42 routing_veh42" vType="veh_passenger" speedFactor="0.96" vaporized=""/>
    <tripinfo id="veh389" depart="120.00" departLane="88447138#1_0" departPos="5.10" departSpeed="0.00" departDelay="0.15" arrival="262.00" arrivalLane="-7515863#0_0" arrivalPos="50.42" arrivalSpeed="9.37" duration="142.00" routeLength="1462.28" waitingTime="13.00" waitingCount="2" stopTime="0.00" timeLoss="44.41" rerouteNo="1" devices="tripinfo_veh389 routing_veh389" vType="veh_passenger" speedFactor="1.20" vaporized=""/>
    <tripinfo id="myflow1.5" depart="188.00" departLane="-275095923#6_0" departPos="5.10" departSpeed="0.00" departDelay="0.50" arrival="263.00" arrivalLane="-1267989605#1_0" arrivalPos="29.94" arrivalSpeed="12.60" duration="75.00" routeLength="541.87" waitingTime="0.00" waitingCount="0" stopTime="0.00" timeLoss="7.74" rerouteNo="1" devices="tripinfo_myflow1.5 routing_myflow1.5" vType="DEFAULT_VEHTYPE" speedFactor="0.95" vaporized=""/>
    <tripinfo id="veh607" depart="188.00" departLane="-7510741_0" departPos="5.10" departSpeed="0.00" departDelay="0.99" arrival="264.00" arrivalLane="7510888#1_0" arrivalPos="74.66" arrivalSpeed="8.79" duration="76.00" routeLength="671.10" waitingTime="0.00" waitingCount="0" stopTime="0.00" timeLoss="10.16" rerouteNo="1" devices="tripinfo_veh607 routing_veh607" vType="veh_passenger" speedFactor="1.09" vaporized=""/>
    <tripinfo id="veh128" depart="40.00" departLane="-7520101_0" departPos="5.10" departSpeed="0.00" departDelay="0.56" arrival="273.00" arrivalLane="7520086#0_0" arrivalPos="0.20" arrivalSpeed="3.76" duration="233.00" routeLength="1939.43" waitingTime="0.00" waitingCount="0" stopTime="0.00" timeLoss="25.62" rerouteNo="1" devices="tripinfo_veh128 routing_veh128" vType="veh_passenger" speedFactor="0.94" vaporized=""/>
    <tripinfo id="veh66" depart="21.00" departLane="-682518230#1_0" departPos="5.10" departSpeed="8.22" departDelay="0.67" arrival="275.00" arrivalLane="7517413#0_0" arrivalPos="8.70" arrivalSpeed="11.52" duration="254.00" routeLength="2189.54" waitingTime="33.00" waitingCount="4" stopTime="0.00" timeLoss="75.53" rerouteNo="1" devices="tripinfo_veh66 routing_veh66" vType="veh_passenger" speedFactor="0.99" vaporized=""/>
    <tripinfo id="veh61" depart="19.00" departLane="1019437360#17_0" departPos="5.10" departSpeed="0.00" departDelay="0.21" arrival="278.00" arrivalLane="-7546499#3_0" arrivalPos="42.43" arrivalSpeed="4.23" duration="259.00" routeLength="2023.62" waitingTime="28.00" waitingCount="2" stopTime="0.00" timeLoss="72.19" rerouteNo="1" devices="tripinfo_veh61 routing_veh61" vType="veh_passenger" speedFactor="1.02" vaporized=""/>
    <tripinfo id="veh63" depart="20.00" departLane="7520027#10_0" departPos="5.10" departSpeed="0.00" departDelay="0.59" arrival="278.00" arrivalLane="7517113_0" arrivalPos="77.35" arrivalSpeed="7.87" duration="258.00" routeLength="3005.28" waitingTime="8.00" waitingCount="1" stopTime="0.00" timeLoss="53.70" rerouteNo="1" devices="tripinfo_veh63 routing_veh63" vType="veh_passenger" speedFactor="1.08" vaporized=""/>
    <tripinfo id="veh249" depart="77.00" departLane="-7330828#0_0" departPos="5.10" departSpeed="0.00" departDelay="0.29" arrival="278.00" arrivalLane="168860348#1_0" arrivalPos="6.85" arrivalSpeed="13.18" duration="201.00" routeLength="1618.68" waitingTime="28.00" waitingCount="2" stopTime="0.00" timeLoss="58.59" rerouteNo="1" devices="tripinfo_veh249 routing_veh249" vType="veh_passenger" speedFactor="0.99" vaporized=""/>
    <tripinfo id="veh186" depart="58.00" departLane="-7546178#5_0" departPos="5.10" departSpeed="0.00" departDelay="0.70" arrival="285.00" arrivalLane="7518961#0_0" arrivalPos="22.70" arrivalSpeed="14.53" duration="227.00" routeLength="1844.78" waitingTime="15.00" waitingCount="1" stopTime="0.00" timeLoss="44.01" rerouteNo="1" devices="tripinfo_veh186 routing_veh186" vType="veh_passenger" speedFactor="0.90" vaporized=""/>
    <tripinfo id="veh510" depart="158.00" departLane="7331873#6_0" departPos="5.10" departSpeed="0.00" departDelay="0.88" arrival="285.00" arrivalLane="-7331811#0_0" arrivalPos="13.37" arrivalSpeed="6.98" duration="127.00" routeLength="1031.98" waitingTime="0.00" waitingCount="0" stopTime="0.00" timeLoss="16.89" rerouteNo="1" devices="tripinfo_veh510 routing_veh510" vType="veh_passenger" speedFactor="0.94" vaporized=""/>
    <tripinfo id="veh164" depart="51.00" departLane="-7511823#4_0" departPos="5.10" departSpeed="0.00" departDelay="0.47" arrival="286.00" arrivalLane="-7329725#2_0" arrivalPos="34.84" arrivalSpeed="7.58" duration="235.00" routeLength="2261.97" waitingTime="18.00" waitingCount="1" stopTime="0.00" timeLoss="44.67" rerouteNo="1" devices="tripinfo_veh164 routing_veh164" vType="veh_passenger" speedFactor="1.00" vaporized=""/>
    <tripinfo id="veh328" depart="102.00" departLane="7510932#2_0" departPos="5.10" departSpeed="0.00" departDelay="0.95" arrival="286.00" arrivalLane="-71306255#1_0" arrivalPos="1.23" arrivalSpeed="8.31" duration="184.00" routeLength="1786.39" waitingTime="5.00" waitingCount="1" stopTime="0.00" timeLoss="38.02" rerouteNo="1" devices="tripinfo_veh328 routing_veh328" vType="veh_passenger" speedFactor="0.98" vaporized=""/>
    <tripinfo id="veh377" depart="117.00" departLane="7510837#1_0" departPos="5.10" departSpeed="0.00" departDelay="0.85" arrival="286.00" arrivalLane="-7510913#2_0" arrivalPos="89.13" arrivalSpeed="6.13" duration="169.00" routeLength="1496.56" waitingTime="0.00" waitingCount="0" stopTime="0.00" timeLoss="20.62" rerouteNo="1" devices="tripinfo_veh377 routing_veh377" vType="veh_passenger" speedFactor="0.82" vaporized=""/>
    <tripinfo id="myflow1.6" depart="205.00" departLane="-275095923#6_0" departPos="5.10" departSpeed="0.00" departDelay="0.00" arrival="286.00" arrivalLane="-1267989605#1_0" arrivalPos="29.94" arrivalSpeed="11.05" duration="81.00" routeLength="541.87" waitingTime="0.00" waitingCount="0" stopTime="0.00" timeLoss="8.96" rerouteNo="1" devices="tripinfo_myflow1.6 routing_myflow1.6" vType="DEFAULT_VEHTYPE" speedFactor="0.89" vaporized=""/>
    <tripinfo id="veh19" depart="6.00" departLane="7519686#0_0" departPos="1.81" departSpeed="0.00" departDelay="0.15" arrival="287.00" arrivalLane="59306576#1_0" arrivalPos="747.96" arrivalSpeed="21.83" duration="281.00" routeLength="3089.27" waitingTime="0.00" waitingCount="0" stopTime="0.00" timeLoss="31.58" rerouteNo="1" devices="tripinfo_veh19 routing_veh19" vType="veh_passenger" speedFactor="1.02" vaporized=""/>
    <tripinfo id="myflow1.7" depart="223.00" departLane="-275095923#6_0" departPos="5.10" departSpeed="0.00" departDelay="0.50" arrival="288.00" arrivalLane="-1267989605#1_0" arrivalPos="29.94" arrivalSpeed="13.19" duration="65.00" routeLength="541.87" waitingTime="0.00" waitingCount="0" stopTime="0.00" timeLoss="8.76" rerouteNo="1" devices="tripinfo_myflow1.7 routing_myflow1.7" vType="DEFAULT_VEHTYPE" speedFactor="1.14" vaporized=""/>
    <tripinfo id="veh690" depart="213.00" departLane="7517037#1_0" departPos="5.10" departSpeed="0.00" departDelay="0.42" arrival="290.00" arrivalLane="48278114#5_0" arrivalPos="9.49" arrivalSpeed="12.92" duration="77.00" routeLength="601.81" waitingTime="0.00" waitingCount="0" stopTime="0.00" timeLoss="12.06" rerouteNo="1" devices="tripinfo_veh690 routing_veh690" vType="veh_passenger" speedFactor="1.11" vaporized=""/>
    <tripinfo id="veh194" depart="60.00" departLane="-1019437360#14_0" departPos="5.10" departSpeed="0.00" departDelay="0.23" arrival="293.00" arrivalLane="7519909#1_0" arrivalPos="46.76" arrivalSpeed="4.22" duration="233.00" routeLength="2475.00" waitingTime="3.00" waitingCount="1" stopTime="0.00" timeLoss="32.70" rerouteNo="1" devices="tripinfo_veh194 routing_veh194" vType="veh_passenger" speedFactor="1.03" vaporized=""/>
    <tripinfo id="veh142" depart="44.00" departLane="1088831210_3" departPos="5.10" departSpeed="0.00" departDelay="0.25" arrival="297.00" arrivalLane="-7519694#2_0" arrivalPos="19.29" arrivalSpeed="4.05" duration="253.00" routeLength="4523.14" waitingTime="0.00" waitingCount="0" stopTime="0.00" timeLoss="34.18" rerouteNo="1" devices="tripinfo_veh142 routing_veh142" vType="veh_passenger" speedFactor="1.23" vaporized=""/>
    <tripinfo id="veh365" depart="113.00" departLane="-7547115#2_0" departPos="0.20" departSpeed="0.00" departDelay="0.55" arrival="298.00" arrivalLane="-7546815#0_0" arrivalPos="133.76" arrivalSpeed="8.72" duration="185.00" routeLength="1838.78" waitingTime="0.00" waitingCount="0" stopTime="0.00" timeLoss="27.17" rerouteNo="1" devices="tripinfo_veh365 routing_veh365" vType="veh_passenger" speedFactor="1.17" vaporized=""/>
    <tripinfo id="veh418" depart="129.00" departLane="-7519033#2_0" departPos="5.10" departSpeed="0.00" departDelay="0.22" arrival="298.00" arrivalLane="7519698#1_0" arrivalPos="21.17" arrivalSpeed="2.67" duration="169.00" routeLength="1142.00" waitingTime="0.00" waitingCount="0" stopTime="0.00" timeLoss="21.33" rerouteNo="1" devices="tripinfo_veh418 routing_veh418" vType="veh_passenger" speedFactor="0.93" vaporized=""/>
    <tripinfo id="veh96" depart="30.00" departLane="126710371_0" departPos="5.10" departSpeed="0.00" departDelay="0.42" arrival="299.00" arrivalLane="7519728#9_0" arrivalPos="18.54" arrivalSpeed="6.98" duration="269.00" routeLength="3923.00" waitingTime="0.00" waitingCount="0" stopTime="0.00" timeLoss="24.94" rerouteNo="1" devices="tripinfo_veh96 routing_veh96" vType="veh_passenger" speedFactor="0.89" vaporized=""/>
    <tripinfo id="veh104" depart="33.00" departLane="7516981#7_0" departPos="5.10" departSpeed="0.00" departDelay="0.96" arrival="300.00" arrivalLane="-7511838#4_0" arrivalPos="32.61" arrivalSpeed="14.62" duration="267.00" routeLength="2489.25" waitingTime="62.00" waitingCount="2" stopTime="0.00" timeLoss="90.27" rerouteNo="1" devices="tripinfo_veh104 routing_veh104" vType="veh_passenger" speedFactor="1.10" vaporized=""/>
    <tripinfo id="veh49" depart="16.00" departLane="79404468_0" departPos="5.10" departSpeed="0.00" departDelay="0.90" arrival="305.00" arrivalLane="7519725_0" arrivalPos="55.48" arrivalSpeed="3.09" duration="289.00" routeLength="2446.30" waitingTime="1.00" waitingCount="1" stopTime="0.00" timeLoss="39.69" rerouteNo="1" devices="tripinfo_veh49 routing_veh49" vType="veh_passenger" speedFactor="0.90" vaporized=""/>
    <tripinfo id="veh335" depart="104.00" departLane="7510790#5_0" departPos="5.10" departSpeed="0.00" departDelay="0.79" arrival="306.00" arrivalLane="-7511194#1_0" arrivalPos="126.28" arrivalSpeed="6.94" duration="202.00" routeLength="1772.23" waitingTime="0.00" waitingCount="0" stopTime="0.00" timeLoss="21.43" rerouteNo="1" devices="tripinfo_veh335 routing_veh335" vType="veh_passenger" speedFactor="0.90" vaporized=""/>
    <tripinfo id="veh426" depart="132.00" departLane="-7519884_0" departPos="5.10" departSpeed="0.00" departDelay="0.75" arrival="307.00" arrivalLane="142386725_0" arrivalPos="48.92" arrivalSpeed="8.91" duration="175.00" routeLength="1828.46" waitingTime="11.00" waitingCount="1" stopTime="0.00" timeLoss="35.73" rerouteNo="1" devices="tripinfo_veh426 routing_veh426" vType="veh_passenger" speedFactor="1.12" vaporized=""/>
    <tripinfo id="veh9" depart="3.00" departLane="7513073_0" departPos="5.10" departSpeed="9.09" departDelay="0.23" arrival="310.00" arrivalLane="-1073808574_0" arrivalPos="58.38" arrivalSpeed="14.05" duration="307.00" routeLength="3705.14" waitingTime="0.00" waitingCount="0" stopTime="0.00" timeLoss="32.09" rerouteNo="1" devices="tripinfo_veh9 routing_veh9" vType="veh_passenger" speedFactor="1.09" vaporized=""/>
    <tripinfo id="veh351" depart="109.00" departLane="7332067#0_0" departPos="5.10" departSpeed="0.00" departDelay="0.86" arrival="310.00" arrivalLane="7332806_0" arrivalPos="32.79" arrivalSpeed="7.10" duration="201.00" routeLength="1599.64" waitingTime="0.00" waitingCount="0" stopTime="0.00" timeLoss="18.46" rerouteNo="1" devices="tripinfo_veh351 routing_veh351" vType="veh_passenger" speedFactor="1.01" vaporized=""/>